# vtk DataFile Version 2.0
Really cool data
ASCII
DATASET POLYDATA
POINTS 1707 float
90.60000000000001 103.284 30.351000000000003
90.43239 103.56939 30.351000000000003
89.34066 105.48105 30.971610000000002
89.14134 105.61695 31.089389999999998
87.882 106.80834 32.262660000000004
86.69061 108.26700000000001 33.236610000000006
85.44939 109.45839 34.428000000000004
84.258 110.24661 36.07239
83.06661000000001 111.438 37.313610000000004
82.16061 112.27605 38.29209
81.44034 112.69734 37.599000000000004
79.10739 113.98839 37.599000000000004
77.916 115.68261000000001 38.33739
77.39505 116.52066000000002 38.79039
76.84239 117.15939 38.052
76.557 120.33039000000001 37.884389999999996
77.01 123.21600000000001 37.599000000000004
77.916 124.74261 36.407610000000005
80.28066 125.83434 36.24
80.53434 126.03366000000001 36.24
80.634 125.48100000000001 35.334
82.899 125.48100000000001 33.975
85.33161 125.934 33.236610000000006
87.26139 127.293 33.236610000000006
88.788 128.48439 34.142610000000005
89.52639 130.917 34.26039
91.22061000000001 132.10839 33.522
93.67134 132.17633999999998 33.522
94.224 129.91134 32.71566
95.68266 129.39039 31.777950000000004
97.78005 128.65200000000002 32.09505
98.92161 127.00761 31.257
100.113 125.934 30.804000000000002
80.73366 126.28733999999999 36.24
81.99300000000001 128.65200000000002 36.24
83.18439 131.08461 36.24
83.352 134.47305 36.17205
83.352 137.25900000000001 35.334
82.899 139.69161 34.59561
82.27839 141.68934 33.58995
81.25461 143.148 32.448389999999996
80.01339 144.71991000000003 31.642049999999998
79.72800000000001 146.93961000000002 30.518610000000002
80.181 149.20461 29.612610000000004
80.80161000000001 151.20234 28.60695
81.47205 153.01434 27.465390000000003
81.54 155.09361 25.98861
81.15495 157.191 24.847050000000003
80.70195000000001 159.24309 23.72361
80.34861000000001 161.43561 23.556
80.634 162.174 23.556
80.634 165.345 24.009
81.47205 167.51033999999999 24.62961
81.99300000000001 169.58961 25.65339
82.54566 171.58733999999998 26.727
82.73139 171.78666 26.79495
84.42561 173.046 27.465390000000003
87.36105 173.499 27.565050000000003
89.52639 173.046 26.55939
90.88539 172.59300000000002 24.747390000000003
91.85934 172.14000000000001 22.550340000000002
93.67134 172.14000000000001 20.73834
95.583 172.14000000000001 19.026
97.32705 172.66094999999999 17.667
96.77439 175.21134 18.05205
95.29761 177.29061000000002 18.12
95.13000000000001 179.32005 16.82895
95.41539 178.482 14.32839
96.42105 178.64961 11.87766
96.489 178.76739 8.774610000000001
96.489 178.029 6.795
96.94200000000001 177.576 5.436
81.75291 172.07205000000002 27.012390000000003
81.087 173.14566000000002 28.89234
80.34861000000001 174.405 30.518610000000002
79.79595 175.93161 32.063340000000004
79.10739 177.12300000000002 33.80739
78.369 178.31439 35.50161000000001
76.91034 178.935 37.04634
75.651 180.747 37.599000000000004
73.386 181.48539 36.97839
72.027 181.653 34.881
72.41205 182.45934 32.448389999999996
71.74161000000001 183.465 30.63639
71.74161000000001 185.56239 30.351000000000003
72.64761 187.02105 29.09166
73.839 186.636 28.086000000000002
80.34861000000001 161.20005 22.86291
79.66005 162.174 20.90595
79.44261 161.65305 20.28534
78.12891 160.42995 19.764390000000002
75.19800000000001 159.909 19.932000000000002
71.85939 160.19439 19.932000000000002
68.47095 160.29405000000003 19.932000000000002
66.30561 158.83539 19.932000000000002
65.33166 157.02339 20.77005
64.32600000000001 155.54661000000002 21.91161
63.25239 154.18761 23.103
62.967 151.755 24.009
61.508340000000004 150.04266 24.462
62.061 148.41639 23.72361
62.34639 146.93961000000002 22.197
61.608000000000004 145.5489 20.838
61.608000000000004 146.60439 18.40539
61.608000000000004 147.225 18.12
79.56039 162.45939 20.838
78.369 164.892 20.838
76.84239 166.91691000000003 20.77005
75.36561 168.06300000000002 19.764390000000002
74.292 169.422 18.573
72.57966 170.88066 18.12
71.02134000000001 171.61905000000002 16.92861
70.04739000000001 174.69039 17.214000000000002
69.02361 175.47861 19.026
67.28409 176.45709 19.932000000000002
66.59100000000001 177.47634 21.84366
66.07005 179.48766 22.93539
65.51739 181.41291 24.07695
64.49361 183.012 25.08261
64.32600000000001 185.37666000000002 26.17434
65.232 187.02105 27.24795
66.30561 188.901 27.918390000000002
66.59100000000001 189.354 28.086000000000002
77.29539 116.77434 38.890049999999995
76.17195000000001 119.20694999999999 38.958
76.104 120.498 38.958
75.13005 119.97705000000002 38.958
72.09495000000001 119.87739 39.31134
70.668 118.51839 40.14939
69.02361 117.22734 40.837950000000006
66.87639 116.13561 41.223
64.32600000000001 115.515 40.77
62.16066 115.062 39.764340000000004
61.608000000000004 115.968 37.599000000000004
62.581950000000006 114.67695 36.24
63.487950000000005 112.24434000000001 36.52539
63.94095000000001 110.81739 38.26491
64.39395 109.79361 40.41666
64.94661 108.43461 42.129
66.23766 106.55466 42.582
67.42905 104.643 42.06105
68.23539 102.66339 41.223
68.85600000000001 100.28061000000001 41.843610000000005
68.04966 98.65434 43.035000000000004
66.75861 97.395 44.108610000000006
65.85261 96.036 45.46761
65.232 94.77666 47.21166
64.32600000000001 93.41766 48.570660000000004
63.80505 92.24439 50.49591
62.61366 91.12095000000001 51.809610000000006
61.44039 90.21495 53.35434
60.08139 90.147 55.55139
58.72239 89.86161 57.531
57.984 89.694 58.89
76.17195000000001 120.88305000000001 38.958
76.84239 123.669 39.12561
77.74839 125.48100000000001 40.03161
78.369 127.19333999999999 41.32266
78.822 128.75166000000002 42.935340000000004
78.822 129.94305000000003 44.914950000000005
79.56039 130.17861 44.394
81.18666 131.65539 44.914950000000005
83.06661000000001 133.01439 45.300000000000004
83.97261 134.89434 44.46195
85.164 137.25900000000001 44.394
86.16966000000001 139.87734 44.394
87.66909 141.54891 44.847
89.17305 143.50134 45.014610000000005
90.60000000000001 145.413 45.300000000000004
91.506 146.31900000000002 45.300000000000004
90.76761 146.93961000000002 45.300000000000004
90.147 149.943 45.300000000000004
90.147 153.28161 45.58539
89.241 155.54661000000002 46.03839
89.17305 158.19666 46.94439
88.788 160.815 47.565000000000005
88.788 163.98600000000002 47.112
88.788 165.89766000000003 45.399660000000004
89.14134 167.157 43.38834
91.959 167.61 43.035000000000004
93.93861000000001 169.18191000000002 42.96705
95.06205 170.68134 41.96139
96.20361000000001 171.97239 40.77
97.49466 173.046 39.51066
98.92161 172.76061 37.599000000000004
99.66 171.75495 35.719049999999996
100.85139 171.30195 33.87534
102.21039 171.30195 32.37591
102.831 170.781 31.71
91.79139 146.48661 45.300000000000004
93.48561000000001 147.89091000000002 45.82095
94.84461 149.32239 46.659
95.65095000000001 150.94866000000002 47.85039
96.42105 152.44808999999998 49.20939
96.489 154.99394999999998 50.21505
96.489 157.47639 51.35661
96.489 159.909 52.548
96.036 161.62134 54.006660000000004
96.036 163.88634 55.36566
96.036 166.251 56.625
96.036 168.61566000000002 57.88434
95.583 170.68134 58.98966
95.13000000000001 172.42539 60.416610000000006
95.13000000000001 173.85234 62.61366
95.19795 174.405 63.80505
95.29761 174.405 64.15839
96.036 175.311 66.138
96.036 176.95539 68.11761
95.29761 178.029 69.92961000000001
94.32366 178.935 71.67366
93.60339 179.77305 73.73934
93.03261 180.294 76.27161000000001
92.412 181.03239 78.53661000000001
92.86500000000001 181.36761 81.37239
94.224 181.653 83.352
94.96239 182.27361000000002 85.617
95.29761 183.012 88.16739
96.32139 183.465 90.31461
96.65661 183.465 93.60339
96.94200000000001 183.85005 96.55695
98.20134 183.918 98.85366
99.56034 183.53295 100.73361
101.47200000000001 184.371 100.566
103.284 184.371 100.113
94.74495 174.92595 63.42
94.74495 176.95539 64.87866
95.65095000000001 179.32005 65.232
96.489 182.106 65.232
96.77439 185.44461 65.232
97.848 187.64166000000003 65.58534
96.55695 189.25433999999998 65.97039
95.583 190.42761000000002 64.49361
94.677 190.78095 62.12895
95.13000000000001 191.78661 60.53439
95.13000000000001 192.072 60.702000000000005
78.822 130.011 45.300000000000004
78.369 131.08461 47.39739
77.81634 131.823 49.730340000000005
76.84239 132.66105000000002 51.54234
75.55134 133.18200000000002 53.35434
74.00661000000001 134.18766000000002 54.42795
72.38034 134.994 55.61934
70.668 135.83205 56.69295
68.95566 136.73805000000002 57.69861
67.32939 137.71200000000002 58.72239
65.58534 138.618 59.69634
63.873000000000005 139.45605 60.76995
62.22861 140.43 61.77561000000001
60.98739 141.62139 62.967
59.343 142.40961000000001 64.15839
57.77109 143.31561 65.29995000000001
56.072340000000004 144.33939 66.20595
54.45966 145.34505000000001 67.21161000000001
52.901340000000005 146.38694999999998 68.23539
51.08934 147.51039 68.92395
49.99761 148.75161 69.309
49.83 149.943 68.403
49.89795 152.59305 67.497
51.08934 155.02566000000002 67.497
52.095 157.644 67.497
52.095 158.48205000000002 67.56495000000001
52.095 158.26461 66.75861
51.642 160.362 65.685
50.283 161.721 64.779
48.11766 162.627 64.22634000000001
46.94439 163.08 62.22861
46.659 164.53866000000002 60.34866
46.659 166.704 58.89
46.659 168.44805000000002 58.36905
46.659 168.80139 58.26939
47.279610000000005 170.61339 57.078
47.565000000000005 172.14000000000001 55.266
47.112 173.046 53.001000000000005
47.112 174.95766 51.28866
46.94439 176.14905000000002 49.02366
46.206 177.12300000000002 47.112
44.847 177.40839 45.13239
43.20261 178.029 43.77339
41.57634 178.482 42.22866
39.93195 179.10261 40.86966
38.672610000000006 180.00861 39.411
37.499340000000004 180.81494999999998 37.76661
36.407610000000005 181.72095 36.14034
36.24 182.106 35.334
46.03839 167.99505000000002 58.08366
44.294340000000005 168.86934 57.078
42.48234 170.61339 57.01005
40.60239 171.234 55.886610000000005
38.60466 171.234 54.26034
37.04634 171.234 52.19466
35.048610000000004 171.234 50.56839
34.428000000000004 171.234 50.283
52.16295 158.76291 67.66461000000001
53.001000000000005 160.815 68.403
52.38039 161.721 70.50039
50.736000000000004 162.07434 72.12666
[...]
POINT_DATA 1707
SCALARS Labels double 1
LOOKUP_TABLE default
-1.0 -1.0 -1.0 -1.0 -1.0 -1.0 -1.0 -1.0 -1.0 -1.0 -1.0 -1.0 -1.0 -1.0 10.0 10.0 10.0 10.0 10.0 10.0 10.0 10.0 10.0 10.0 10.0 10.0 10.0 10.0 10.0 10.0 10.0 10.0 10.0 10.0 10.0 10.0 10.0 10.0 10.0 10.0 10.0 10.0 10.0 10.0 10.0 10.0 10.0 10.0 10.0 10.0 10.0 10.0 10.0 10.0 10.0 10.0 10.0 10.0 10.0 10.0 10.0 10.0 10.0 10.0 10.0 10.0 10.0 10.0 10.0 10.0 10.0 10.0 10.0 10.0 10.0 10.0 10.0 10.0 10.0 10.0 10.0 10.0 10.0 10.0 10.0 10.0 10.0 10.0 10.0 10.0 10.0 10.0 10.0 10.0 10.0 10.0 10.0 10.0 10.0 10.0 10.0 10.0 10.0 10.0 10.0 10.0 10.0 10.0 10.0 10.0 10.0 10.0 10.0 10.0 10.0 10.0 10.0 10.0 10.0 10.0 10.0 10.0 10.0 7.0 7.0 7.0 11.0 11.0 11.0 11.0 11.0 11.0 11.0 11.0 11.0 11.0 11.0 11.0 11.0 11.0 11.0 11.0 11.0 11.0 11.0 11.0 11.0 11.0 11.0 11.0 11.0 11.0 11.0 11.0 7.0 7.0 7.0 7.0 7.0 7.0 10.0 10.0 10.0 10.0 10.0 10.0 10.0 10.0 10.0 10.0 10.0 10.0 10.0 10.0 10.0 10.0 10.0 10.0 10.0 10.0 10.0 10.0 10.0 10.0 10.0 10.0 10.0 10.0 10.0 10.0 10.0 10.0 10.0 10.0 10.0 10.0 10.0 10.0 10.0 10.0 10.0 10.0 10.0 10.0 10.0 10.0 10.0 10.0 10.0 10.0 10.0 10.0 10.0 10.0 10.0 10.0 10.0 10.0 10.0 10.0 10.0 10.0 10.0 10.0 10.0 10.0 10.0 10.0 10.0 10.0 10.0 10.0 10.0 10.0 10.0 7.0 7.0 7.0 7.0 7.0 7.0 7.0 7.0 7.0 7.0 7.0 7.0 7.0 7.0 7.0 7.0 7.0 7.0 7.0 7.0 7.0 7.0 7.0 7.0 7.0 7.0 7.0 7.0 7.0 7.0 7.0 7.0 7.0 7.0 7.0 7.0 7.0 7.0 7.0 7.0 7.0 7.0 7.0 7.0 7.0 7.0 7.0 7.0 7.0 7.0 7.0 7.0 7.0 7.0 7.0 7.0 7.0 7.0 7.0 7.0 7.0 7.0 7.0 7.0 7.0 7.0 7.0 7.0 7.0 7.0 7.0 7.0 7.0 7.0 7.0 7.0 7.0 7.0 7.0 7.0 7.0 7.0 7.0 7.0 7.0 7.0 7.0 7.0 7.0 7.0 7.0 7.0 7.0 7.0 7.0 7.0 7.0 7.0 7.0 7.0 7.0 7.0 7.0 7.0 7.0 7.0 7.0 7.0 7.0 7.0 7.0 7.0 7.0 7.0 7.0 7.0 7.0 7.0 7.0 7.0 7.0 7.0 7.0 7.0 7.0 7.0 7.0 7.0 7.0 7.0 7.0 7.0 7.0 7.0 7.0 7.0 7.0 7.0 7.0 7.0 7.0 7.0 7.0 7.0 7.0 7.0 7.0 7.0 7.0 7.0 7.0 7.0 7.0 7.0 7.0 7.0 7.0 7.0 7.0 7.0 7.0 7.0 7.0 7.0 7.0 7.0 7.0 7.0 7.0 7.0 7.0 7.0 7.0 7.0 7.0 7.0 7.0 7.0 7.0 7.0 7.0 7.0 7.0 7.0 7.0 7.0 7.0 7.0 7.0 7.0 7.0 7.0 7.0 7.0 7.0 7.0 7.0 7.0 7.0 7.0 7.0 7.0 7.0 7.0 7.0 7.0 7.0 7.0 7.0 7.0 7.0 7.0 7.0 7.0 7.0 7.0 7.0 7.0 7.0 7.0 7.0 7.0 7.0 7.0 7.0 7.0 7.0 7.0 7.0 7.0 7.0 7.0 7.0 7.0 7.0 7.0 7.0 7.0 7.0 7.0 7.0 7.0 7.0 7.0 7.0 7.0 7.0 7.0 7.0 7.0 7.0 7.0 7.0 7.0 7.0 7.0 7.0 7.0 7.0 7.0 7.0 7.0 7.0 7.0 7.0 7.0 7.0 7.0 7.0 7.0 7.0 7.0 7.0 7.0 7.0 7.0 7.0 7.0 7.0 7.0 7.0 7.0 7.0 7.0 7.0 7.0 -1.0 -1.0 -1.0 -1.0 -1.0 -1.0 -1.0 -1.0 -1.0 -1.0 -1.0 -1.0 -1.0 -1.0 -1.0 -1.0 -1.0 -1.0 -1.0 -1.0 -1.0 -1.0 -1.0 -1.0 -1.0 -1.0 -1.0 -1.0 -1.0 -1.0 -1.0 -1.0 -1.0 -1.0 7.0 7.0 7.0 7.0 7.0 7.0 7.0 7.0 7.0 7.0 7.0 7.0 7.0 7.0 7.0 7.0 7.0 7.0 7.0 7.0 7.0 7.0 7.0 7.0 7.0 7.0 7.0 7.0 7.0 7.0 7.0 7.0 7.0 7.0 7.0 7.0 7.0 7.0 7.0 7.0 7.0 7.0 7.0 7.0 7.0 7.0 7.0 7.0 7.0 7.0 7.0 7.0 7.0 7.0 7.0 7.0 7.0 7.0 7.0 7.0 7.0 7.0 7.0 7.0 7.0 -1.0 -1.0 -1.0 -1.0 -1.0 1.0 1.0 1.0 1.0 1.0 1.0 1.0 1.0 1.0 1.0 1.0 1.0 1.0 1.0 1.0 1.0 1.0 1.0 1.0 1.0 1.0 1.0 1.0 1.0 1.0 1.0 1.0 1.0 1.0 1.0 1.0 1.0 1.0 1.0 1.0 1.0 1.0 1.0 1.0 1.0 1.0 1.0 1.0 1.0 1.0 1.0 1.0 1.0 1.0 1.0 1.0 1.0 1.0 1.0 1.0 1.0 1.0 1.0 1.0 1.0 1.0 1.0 1.0 1.0 1.0 1.0 1.0 1.0 1.0 1.0 1.0 1.0 1.0 1.0 1.0 1.0 1.0 1.0 1.0 1.0 1.0 1.0 1.0 1.0 1.0 1.0 1.0 1.0 1.0 1.0 1.0 1.0 1.0 1.0 1.0 1.0 1.0 1.0 1.0 1.0 1.0 1.0 1.0 1.0 1.0 1.0 1.0 1.0 1.0 -1.0 -1.0 -1.0 -1.0 -1.0 -1.0 -1.0 -1.0 -1.0 -1.0 -1.0 -1.0 -1.0 -1.0 -1.0 1.0 1.0 1.0 1.0 1.0 1.0 1.0 1.0 1.0 1.0 1.0 1.0 1.0 1.0 1.0 1.0 1.0 1.0 1.0 1.0 1.0 1.0 1.0 1.0 1.0 1.0 1.0 1.0 1.0 1.0 1.0 1.0 1.0 -1.0 -1.0 -1.0 8.0 8.0 8.0 8.0 8.0 8.0 8.0 8.0 8.0 8.0 8.0 8.0 8.0 8.0 8.0 8.0 8.0 8.0 8.0 8.0 8.0 8.0 8.0 8.0 8.0 8.0 8.0 8.0 8.0 8.0 8.0 8.0 8.0 8.0 8.0 8.0 8.0 8.0 8.0 8.0 8.0 8.0 8.0 8.0 8.0 8.0 8.0 8.0 8.0 8.0 8.0 8.0 8.0 8.0 8.0 8.0 8.0 8.0 8.0 8.0 8.0 8.0 8.0 8.0 8.0 8.0 8.0 8.0 8.0 8.0 8.0 8.0 8.0 8.0 8.0 8.0 8.0 8.0 8.0 8.0 8.0 8.0 8.0 8.0 8.0 8.0 8.0 8.0 8.0 8.0 8.0 8.0 8.0 8.0 8.0 8.0 8.0 8.0 8.0 8.0 8.0 8.0 8.0 8.0 8.0 8.0 8.0 8.0 8.0 8.0 8.0 8.0 8.0 8.0 8.0 8.0 8.0 8.0 8.0 8.0 8.0 8.0 8.0 8.0 8.0 8.0 8.0 8.0 8.0 8.0 8.0 8.0 8.0 8.0 8.0 8.0 8.0 8.0 8.0 8.0 8.0 8.0 8.0 8.0 8.0 8.0 8.0 8.0 8.0 8.0 8.0 8.0 8.0 8.0 8.0 8.0 8.0 8.0 8.0 8.0 8.0 8.0 8.0 8.0 8.0 8.0 8.0 8.0 8.0 8.0 8.0 8.0 8.0 8.0 8.0 8.0 8.0 8.0 8.0 8.0 8.0 8.0 8.0 8.0 8.0 8.0 8.0 8.0 8.0 8.0 8.0 8.0 8.0 8.0 8.0 8.0 8.0 8.0 8.0 8.0 8.0 8.0 8.0 8.0 8.0 8.0 8.0 8.0 8.0 8.0 8.0 8.0 8.0 8.0 8.0 8.0 8.0 8.0 8.0 8.0 8.0 8.0 8.0 8.0 8.0 8.0 8.0 8.0 8.0 8.0 8.0 8.0 8.0 8.0 8.0 8.0 8.0 8.0 8.0 8.0 8.0 8.0 8.0 8.0 8.0 8.0 8.0 8.0 8.0 8.0 8.0 8.0 8.0 8.0 8.0 8.0 8.0 8.0 8.0 8.0 8.0 8.0 8.0 8.0 8.0 8.0 8.0 8.0 8.0 8.0 8.0 8.0 8.0 8.0 8.0 8.0 8.0 8.0 8.0 8.0 8.0 8.0 8.0 8.0 8.0 8.0 8.0 8.0 8.0 8.0 8.0 8.0 8.0 8.0 8.0 8.0 8.0 8.0 8.0 8.0 8.0 8.0 8.0 8.0 8.0 8.0 8.0 8.0 8.0 8.0 8.0 8.0 8.0 8.0 8.0 8.0 8.0 8.0 8.0 8.0 8.0 8.0 8.0 8.0 8.0 8.0 8.0 8.0 8.0 8.0 8.0 8.0 8.0 8.0 8.0 8.0 8.0 8.0 8.0 8.0 8.0 8.0 2.0 2.0 2.0 2.0 2.0 2.0 2.0 2.0 2.0 2.0 2.0 2.0 2.0 2.0 2.0 2.0 2.0 2.0 2.0 2.0 2.0 2.0 2.0 2.0 2.0 2.0 2.0 2.0 2.0 2.0 2.0 2.0 2.0 2.0 2.0 2.0 2.0 2.0 2.0 2.0 2.0 2.0 2.0 2.0 2.0 2.0 2.0 2.0 2.0 2.0 2.0 2.0 2.0 2.0 2.0 2.0 2.0 2.0 2.0 2.0 2.0 2.0 2.0 2.0 2.0 2.0 2.0 2.0 2.0 2.0 2.0 2.0 2.0 2.0 2.0 2.0 2.0 2.0 2.0 2.0 2.0 2.0 2.0 2.0 2.0 2.0 2.0 2.0 2.0 2.0 2.0 2.0 2.0 2.0 2.0 2.0 2.0 2.0 2.0 2.0 2.0 2.0 2.0 2.0 2.0 2.0 2.0 2.0 2.0 2.0 2.0 2.0 2.0 2.0 2.0 2.0 2.0 2.0 2.0 2.0 2.0 2.0 2.0 2.0 2.0 2.0 2.0 2.0 2.0 2.0 2.0 2.0 2.0 2.0 8.0 8.0 8.0 8.0 8.0 8.0 8.0 8.0 8.0 3.0 3.0 3.0 3.0 3.0 3.0 3.0 3.0 3.0 3.0 3.0 0.0 0.0 0.0 0.0 0.0 0.0 0.0 0.0 0.0 0.0 0.0 0.0 0.0 0.0 0.0 0.0 0.0 0.0 0.0 0.0 0.0 0.0 0.0 0.0 0.0 0.0 0.0 0.0 0.0 0.0 0.0 0.0 0.0 0.0 0.0 0.0 0.0 0.0 0.0 0.0 0.0 0.0 0.0 0.0 0.0 0.0 0.0 0.0 0.0 0.0 0.0 0.0 0.0 0.0 0.0 0.0 0.0 0.0 0.0 0.0 0.0 0.0 0.0 0.0 0.0 0.0 0.0 0.0 0.0 0.0 0.0 0.0 0.0 0.0 0.0 0.0 0.0 0.0 0.0 0.0 0.0 0.0 0.0 0.0 0.0 0.0 0.0 0.0 0.0 0.0 0.0 0.0 0.0 0.0 0.0 0.0 0.0 0.0 0.0 0.0 0.0 0.0 0.0 0.0 0.0 0.0 0.0 0.0 0.0 0.0 0.0 0.0 0.0 0.0 0.0 0.0 0.0 0.0 3.0 3.0 3.0 3.0 3.0 3.0 3.0 3.0 3.0 3.0 3.0 3.0 3.0 3.0 3.0 3.0 3.0 3.0 3.0 3.0 3.0 3.0 3.0 3.0 3.0 3.0 3.0 3.0 3.0 3.0 3.0 3.0 3.0 3.0 3.0 3.0 3.0 3.0 3.0 3.0 3.0 3.0 3.0 3.0 3.0 3.0 3.0 3.0 3.0 3.0 3.0 3.0 3.0 3.0 3.0 3.0 3.0 3.0 3.0 3.0 3.0 3.0 3.0 3.0 3.0 3.0 3.0 3.0 3.0 3.0 3.0 3.0 3.0 3.0 3.0 3.0 3.0 3.0 3.0 3.0 3.0 3.0 3.0 3.0 3.0 3.0 3.0 3.0 3.0 3.0 3.0 3.0 3.0 3.0 3.0 3.0 3.0 3.0 3.0 3.0 3.0 3.0 3.0 3.0 3.0 3.0 3.0 3.0 3.0 3.0 3.0 3.0 3.0 3.0 3.0 3.0 3.0 3.0 3.0 3.0 3.0 3.0 3.0 3.0 3.0 3.0 3.0 3.0 3.0 3.0 3.0 3.0 3.0 3.0 3.0 3.0 3.0 3.0 3.0 3.0 3.0 3.0 3.0 3.0 3.0 3.0 3.0 3.0 3.0 3.0 3.0 3.0 3.0 3.0 3.0 3.0 3.0 3.0 3.0 3.0 3.0 3.0 3.0 3.0 3.0 3.0 3.0 3.0 3.0 3.0 3.0 3.0 3.0 3.0 3.0 3.0 3.0 3.0 3.0 3.0 3.0 3.0 3.0 3.0 3.0 3.0 3.0 3.0 3.0 3.0 3.0 3.0 3.0 3.0 3.0 3.0 3.0 3.0 3.0 3.0 3.0 3.0 3.0 3.0 3.0 3.0 3.0 3.0 3.0 3.0 3.0 3.0 3.0 3.0 3.0 3.0 3.0 3.0 3.0 3.0 3.0 -1.0 -1.0 -1.0 -1.0 -1.0 -1.0 -1.0 -1.0 -1.0 -1.0 -1.0 11.0 11.0 11.0 11.0 11.0 11.0 11.0 11.0 11.0 11.0 11.0 11.0 11.0 11.0 11.0 11.0 11.0 11.0 11.0 11.0 11.0 11.0 11.0 11.0 11.0 11.0 11.0 11.0 11.0 11.0 11.0 11.0 11.0 11.0 11.0 11.0 11.0 11.0 11.0 11.0 11.0 11.0 11.0 11.0 11.0 11.0 11.0 11.0 11.0 11.0 11.0 11.0 11.0 11.0 11.0 11.0 11.0 11.0 11.0 11.0 11.0 11.0 11.0 11.0 11.0 11.0 11.0 11.0 11.0 11.0 11.0 11.0 11.0 11.0 11.0 11.0